                         Program Version 6.0.1  -  RELEASE   -
|  1> ! wB97X-D3 aug-cc-pVTZ TightOpt Freq
|  2>
|  3> %pal nprocs=32 end
|  4> %maxcore 2000
|  5>
|  6> %basis
|  7>   NewGTO 15
|  8> S   15
|  9> 1         3.124000E+05           5.769600E-05
| 10> 2         4.680000E+04           4.482960E-04
| 11> 3         1.065000E+04           2.349390E-03
| 12> 4         3.018000E+03           9.782650E-03
| 13> 5         9.868000E+02           3.414670E-02
| 14> 6         3.574000E+02           1.002040E-01
| 15> 7         1.396000E+02           2.343720E-01
| 16> 8         5.763000E+01           3.824340E-01
| 17> 9         2.460000E+01           3.180880E-01
| 18> 10        1.012000E+01           7.077880E-02
| 19> 11        4.283000E+00          -1.817990E-03
| 20> 12        1.805000E+00           2.161800E-03
| 21> 13        6.158000E-01          -8.347420E-04
| 22> 14        2.782000E-01           4.322970E-04
| 23> 15        1.055000E-01          -1.142510E-04
| 24> S   15
| 25> 1         3.124000E+05          -1.567090E-05
| 26> 2         4.680000E+04          -1.217240E-04
| 27> 3         1.065000E+04          -6.396720E-04
| 28> 4         3.018000E+03          -2.674260E-03
| 29> 5         9.868000E+02          -9.498310E-03
| 30> 6         3.574000E+02          -2.893490E-02
| 31> 7         1.396000E+02          -7.451210E-02
| 32> 8         5.763000E+01          -1.499380E-01
| 33> 9         2.460000E+01          -1.894670E-01
| 34> 10        1.012000E+01           3.632700E-02
| 35> 11        4.283000E+00           5.288160E-01
| 36> 12        1.805000E+00           5.191150E-01
| 37> 13        6.158000E-01           6.055470E-02
| 38> 14        2.782000E-01          -9.256950E-03
| 39> 15        1.055000E-01           2.103720E-03
| 40> S   1
| 41> 1         6.158000E-01           1.000000E+00
| 42> S   15
| 43> 1         3.124000E+05           4.306310E-06
| 44> 2         4.680000E+04           3.341940E-05
| 45> 3         1.065000E+04           1.758850E-04
| 46> 4         3.018000E+03           7.343400E-04
| 47> 5         9.868000E+02           2.617750E-03
| 48> 6         3.574000E+02           7.978520E-03
| 49> 7         1.396000E+02           2.079400E-02
| 50> 8         5.763000E+01           4.244460E-02
| 51> 9         2.460000E+01           5.634360E-02
| 52> 10        1.012000E+01          -1.273580E-02
| 53> 11        4.283000E+00          -1.964950E-01
| 54> 12        1.805000E+00          -3.535550E-01
| 55> 13        6.158000E-01           7.414070E-02
| 56> 14        2.782000E-01           7.009120E-01
| 57> 15        1.055000E-01           4.047390E-01
| 58> S   1
| 59> 1         1.055000E-01           1.000000E+00
| 60> S   1
| 61> 1         0.0409000              1.0000000
| 62> P   9
| 63> 1         5.049000E+02           2.337280E-03
| 64> 2         1.194000E+02           1.854100E-02
| 65> 3         3.796000E+01           8.496930E-02
| 66> 4         1.395000E+01           2.446150E-01
| 67> 5         5.457000E+00           4.227660E-01
| 68> 6         2.177000E+00           3.684390E-01
| 69> 7         8.010000E-01           7.727340E-02
| 70> 8         2.877000E-01          -3.790050E-03
| 71> 9         9.714000E-02           1.599390E-03
| 72> P   1
| 73> 1         8.010000E-01           1.000000E+00
| 74> P   9
| 75> 1         5.049000E+02          -5.552360E-04
| 76> 2         1.194000E+02          -4.459130E-03
| 77> 3         3.796000E+01          -2.063500E-02
| 78> 4         1.395000E+01          -6.176940E-02
| 79> 5         5.457000E+00          -1.089240E-01
| 80> 6         2.177000E+00          -1.055990E-01
| 81> 7         8.010000E-01           1.534830E-01
| 82> 8         2.877000E-01           5.769810E-01
| 83> 9         9.714000E-02           4.224390E-01
| 84> P   1
| 85> 1         9.714000E-02           1.000000E+00
| 86> P   1
| 87> 1         0.0307000              1.0000000
| 88> D   1
| 89> 1         3.120000E+00           1.000000E+00
| 90> D   1
| 91> 1         6.480000E-01           1.000000E+00
| 92> D   1
| 93> 1         2.180000E-01           1.000000E+00
| 94> D   1
| 95> 1         0.0775000              1.0000000
| 96> F   1
| 97> 1         4.520000E-01           1.0000000
| 98> F   1
| 99> 1         0.1650000              1.0000000
|100>   end
|101> end
|102>
|103> *xyz 0 2
|104> P     1.340251383930     -0.736200685684      2.097698305530
|105> H     1.386885647470      0.773861055482      2.139031532854
|106> H    -0.036701450140     -0.740922737749      1.969173916355
|107> H     1.663019194179     -0.762072079671      0.753612461611
|108> O     1.540074220223     -2.390559838735      2.409948103049
|109> H     1.121303859836     -3.060211511644      1.860110307901
|110> *
|111>
|112>
|113>                          ****END OF INPUT****
 Total Charge           Charge          ....    0
 Multiplicity           Mult            ....    2
 Number of Electrons    NEL             ....   27
Dispersion correction           -0.000439825
FINAL SINGLE POINT ENERGY      -418.933737635356
Dispersion correction             ... done (  0.7 sec)
Dispersion correction           -0.000454534
FINAL SINGLE POINT ENERGY      -418.935397621466
Dispersion correction             ... done (  0.0 sec)
Dispersion correction           -0.000471044
FINAL SINGLE POINT ENERGY      -418.936332460396
Dispersion correction             ... done (  0.0 sec)
FINAL SINGLE POINT ENERGY      -418.936398188336
FINAL SINGLE POINT ENERGY      -418.936461830307
FINAL SINGLE POINT ENERGY      -418.936471596850
FINAL SINGLE POINT ENERGY      -418.936482728507
FINAL SINGLE POINT ENERGY      -418.936488391485
FINAL SINGLE POINT ENERGY      -418.936511110349
FINAL SINGLE POINT ENERGY      -418.936538572762
FINAL SINGLE POINT ENERGY      -418.942246533093
FINAL SINGLE POINT ENERGY      -418.942609939971
FINAL SINGLE POINT ENERGY      -418.942796902117
FINAL SINGLE POINT ENERGY      -418.942941151470
FINAL SINGLE POINT ENERGY      -418.942973634228
FINAL SINGLE POINT ENERGY      -418.942986920940
FINAL SINGLE POINT ENERGY      -418.942992963858
Dispersion correction             ... done (  0.0 sec)
Dispersion correction           -0.000465963
FINAL SINGLE POINT ENERGY      -418.942994075083
Dispersion correction             ... done (  0.0 sec)
Dispersion correction           -0.000465935
FINAL SINGLE POINT ENERGY      -418.942994217494
Dispersion correction             ... done (  0.0 sec)
                    ***********************HURRAY********************

CARTESIAN COORDINATES (ANGSTROEM)
---------------------------------
  P      1.230949   -0.803881    1.968388
  H      1.342499    0.597042    2.398240
  H     -0.120847   -0.683568    1.616095
  H      1.898393   -0.580495    0.760591
  O      1.418292   -2.505947    1.823540
  H      1.245547   -2.939257    2.662720

 Multiplicity           Mult            ....    2
 Number of Electrons    NEL             ....   27
 Basis Dimension        Dim             ....  193

ORBITAL ENERGIES
----------------
                 SPIN UP ORBITALS
  NO   OCC          E(Eh)            E(eV)
   0   1.0000     -77.229471     -2101.5207
   1   1.0000     -19.245023      -523.6837
   2   1.0000      -6.708070      -182.5359
   3   1.0000      -4.861639      -132.2919
   4   1.0000      -4.859592      -132.2362
   5   1.0000      -4.859446      -132.2323
   6   1.0000      -1.131618       -30.7929
   7   1.0000      -0.782427       -21.2909
   8   1.0000      -0.611839       -16.6490
   9   1.0000      -0.532611       -14.4931
  10   1.0000      -0.512838       -13.9550
  11   1.0000      -0.461477       -12.5574
  12   1.0000      -0.413547       -11.2532
  13   1.0000      -0.277744        -7.5578
  14   0.0000       0.026586         0.7234
  15   0.0000       0.043971         1.1965
  16   0.0000       0.054820         1.4917
  17   0.0000       0.057228         1.5573
  18   0.0000       0.078600         2.1388

                 SPIN DOWN ORBITALS
  NO   OCC          E(Eh)            E(eV)
   0   1.0000     -77.227029     -2101.4543
   1   1.0000     -19.238906      -523.5172
   2   1.0000      -6.705503      -182.4660
   3   1.0000      -4.858111      -132.1959
   4   1.0000      -4.857689      -132.1844
   5   1.0000      -4.855768      -132.1322
   6   1.0000      -1.113728       -30.3061
   7   1.0000      -0.765109       -20.8197
   8   1.0000      -0.597452       -16.2575
   9   1.0000      -0.521532       -14.1916
  10   1.0000      -0.479712       -13.0536
  11   1.0000      -0.446394       -12.1470
  12   1.0000      -0.404616       -11.0101
  13   0.0000      -0.008823        -0.2401
  14   0.0000       0.037778         1.0280
  15   0.0000       0.055582         1.5125
  16   0.0000       0.061331         1.6689
  17   0.0000       0.067560         1.8384

MULLIKEN ATOMIC CHARGES AND SPIN POPULATIONS
--------------------------------------------
   0 P :    0.018269    0.683716
   1 H :    0.037538    0.195937
   2 H :    0.109258   -0.018391
   3 H :    0.142078   -0.013768
   4 O :   -0.483432    0.194090
   5 H :    0.176290   -0.041583
Sum of atomic charges         :   -0.0000000

LOEWDIN ATOMIC CHARGES AND SPIN POPULATIONS
-------------------------------------------
   0 P :    1.015336    0.464703
   1 H :   -0.325279    0.202362
   2 H :   -0.278000    0.040003
   3 H :   -0.278278    0.027322
   4 O :    0.511425    0.233205
   5 H :   -0.645204    0.032405

  Mayer bond orders larger than 0.100000
B(  0-P ,  1-H ) :   0.9449 B(  0-P ,  2-H ) :   0.9630 B(  0-P ,  3-H ) :   0.9596
B(  0-P ,  4-O ) :   0.8084 B(  4-O ,  5-H ) :   1.0092

Dispersion correction           -0.000465905
FINAL SINGLE POINT ENERGY      -418.942994231010

DIPOLE MOMENT
-------------

Method             : SCF
Type of density    : Electron Density
Multiplicity       :   2
Irrep              :   0
Energy             :  -418.9425283258244690 Eh
Relativity type    :
Basis              : AO
                                X                 Y                 Z
Electronic contribution:      0.450648550      -1.066239648       0.571679632
Nuclear contribution   :     -0.658108671       1.164842453      -0.255759394
                        -----------------------------------------
Total Dipole Moment    :     -0.207460121       0.098602805       0.315920238
                        -----------------------------------------
Magnitude (a.u.)       :      0.390599298
Magnitude (Debye)      :      0.992824514

VIBRATIONAL FREQUENCIES
-----------------------

Scaling factor for frequencies =  1.000000000  (already applied!)

     0:       0.00 cm**-1
     1:       0.00 cm**-1
     2:       0.00 cm**-1
     3:       0.00 cm**-1
     4:       0.00 cm**-1
     5:       0.00 cm**-1
     6:     268.00 cm**-1
     7:     566.95 cm**-1
     8:     615.00 cm**-1
     9:     713.02 cm**-1
    10:     964.13 cm**-1
    11:    1010.69 cm**-1
    12:    1175.97 cm**-1
    13:    1222.78 cm**-1
    14:    2004.59 cm**-1
    15:    2494.81 cm**-1
    16:    2529.64 cm**-1
    17:    3879.56 cm**-1

IR SPECTRUM
-----------

 Mode   freq       eps      Int      T**2         TX        TY        TZ
       cm**-1   L/(mol*cm) km/mol    a.u.
----------------------------------------------------------------------------
  6:    268.00   0.017796   89.93  0.020722  (-0.138936 -0.018927 -0.032563)
  7:    566.95   0.002131   10.77  0.001173  ( 0.004482  0.033812  0.003078)
  8:    615.00   0.024881  125.74  0.012625  ( 0.015405 -0.110681 -0.011731)
  9:    713.02   0.007717   39.00  0.003377  ( 0.011007 -0.048718  0.029713)
 10:    964.13   0.002762   13.96  0.000894  (-0.011424  0.021082 -0.017866)
 11:   1010.69   0.019473   98.41  0.006013  (-0.011420  0.072246  0.025743)
 12:   1175.97   0.010193   51.51  0.002705  ( 0.007837 -0.051263 -0.003947)
 13:   1222.78   0.005116   25.85  0.001306  ( 0.014838  0.032879  0.002119)
 14:   2004.59   0.044619  225.49  0.006946  ( 0.005976  0.080956  0.018879)
 15:   2494.81   0.005904   29.84  0.000739  ( 0.025160 -0.006474  0.007974)
 16:   2529.64   0.004253   21.50  0.000525  ( 0.015503  0.003645 -0.016465)
 17:   3879.56   0.013779   69.63  0.001108  (-0.001969 -0.026062  0.020621)

--------------------------
THERMOCHEMISTRY AT 298.15K
--------------------------

Temperature         ...   298.15 K
Pressure            ...     1.00 atm
Total Mass          ...    51.01 AMU
Quasi RRHO          ...     True
Cut-Off Frequency   ...     1.00 cm^-1

Throughout the following assumptions are being made:
  (1) The electronic state is orbitally nondegenerate
      but the spin degeneracy is treated
  (2) There are no thermally accessible electronically excited states
  (3) Hindered rotations indicated by low frequency modes are not
      treated as such but are treated as vibrations and this may
      cause some error
  (4) All equations used are the standard statistical mechanics
      equations for an ideal gas
  (5) All vibrations are strictly harmonic

freq.     268.00  E(vib)   ...       0.29
freq.     566.95  E(vib)   ...       0.11
freq.     615.00  E(vib)   ...       0.10
freq.     713.02  E(vib)   ...       0.07
freq.     964.13  E(vib)   ...       0.03
freq.    1010.69  E(vib)   ...       0.02
freq.    1175.97  E(vib)   ...       0.01
freq.    1222.78  E(vib)   ...       0.01
freq.    2004.59  E(vib)   ...       0.00
freq.    2494.81  E(vib)   ...       0.00
freq.    2529.64  E(vib)   ...       0.00
freq.    3879.56  E(vib)   ...       0.00

------------
INNER ENERGY
------------

The inner energy is: U= E(el) + E(ZPE) + E(vib) + E(rot) + E(trans)
    E(el)   - is the total energy from the electronic structure calculation
              = E(kin-el) + E(nuc-el) + E(el-el) + E(nuc-nuc)
    E(ZPE)  - the the zero temperature vibrational energy from the frequency calculation
    E(vib)  - the the finite temperature correction to E(ZPE) due to population
              of excited vibrational states
    E(rot)  - is the rotational thermal energy
    E(trans)- is the translational thermal energy

Summary of contributions to the inner energy U:
Electronic energy                ...   -418.94299423 Eh
Zero point energy                ...      0.03974290 Eh      24.94 kcal/mol
Thermal vibrational correction   ...      0.00101238 Eh       0.64 kcal/mol
Thermal rotational correction    ...      0.00141627 Eh       0.89 kcal/mol
Thermal translational correction ...      0.00141627 Eh       0.89 kcal/mol
-----------------------------------------------------------------------
Total thermal energy                   -418.89940640 Eh

Summary of corrections to the electronic energy:
(perhaps to be used in another calculation)
Total thermal correction                  0.00384493 Eh       2.41 kcal/mol
Non-thermal (ZPE) correction              0.03974290 Eh      24.94 kcal/mol
-----------------------------------------------------------------------
Total correction                          0.04358783 Eh      27.35 kcal/mol

--------
ENTHALPY
--------

The enthalpy is H = U + kB*T
                kB is Boltzmann's constant
Total thermal energy              ...   -418.89940640 Eh
Thermal Enthalpy correction       ...      0.00094421 Eh       0.59 kcal/mol
-----------------------------------------------------------------------
Total Enthalpy                    ...   -418.89846219 Eh

Note: Only C1 symmetry has been detected, increase convergence thresholds
      if your molecule has a higher symmetry. Symmetry factor of 1.0 is
      used for the rotational entropy correction.

Note: Rotational entropy computed according to Herzberg
Infrared and Raman Spectra, Chapter V,1, Van Nostrand Reinhold, 1945
Point Group:  C1, Symmetry Number:   1
Rotational constants in cm-1:     3.527750     0.417318     0.408308

Vibrational entropy computed according to the QRRHO of S. Grimme
Chem.Eur.J. 2012 18 9955 using a reference frequency of 100.0 cm-1

-------
ENTROPY
-------

The entropy contributions are T*S = T*(S(el)+S(vib)+S(rot)+S(trans))
     S(el)   - electronic entropy
     S(vib)  - vibrational entropy
     S(rot)  - rotational entropy
     S(trans)- translational entropy
The entropies will be listed as multiplied by the temperature to get
units of energy

Electronic entropy                ...      0.00065446 Eh      0.41 kcal/mol
Vibrational entropy               ...      0.00148430 Eh      0.93 kcal/mol
Rotational entropy                ...      0.00975110 Eh      6.12 kcal/mol
Translational entropy             ...      0.01791774 Eh     11.24 kcal/mol
-----------------------------------------------------------------------
Final entropy term                ...      0.02980759 Eh     18.70 kcal/mol

In case the symmetry of your molecule has not been determined correctly
or in case you have a reason to use a different symmetry number we print
out the resulting rotational entropy values for sn=1,12:

 non-linear molecules -----------------------------------
|  sn= 1 | S(rot)=       0.00975110 Eh      6.12 kcal/mol|
|  sn= 2 | S(rot)=       0.00909664 Eh      5.71 kcal/mol|
|  sn= 3 | S(rot)=       0.00871381 Eh      5.47 kcal/mol|
|  sn= 4 | S(rot)=       0.00844218 Eh      5.30 kcal/mol|
|  sn= 5 | S(rot)=       0.00823149 Eh      5.17 kcal/mol|
|  sn= 6 | S(rot)=       0.00805935 Eh      5.06 kcal/mol|
|  sn= 7 | S(rot)=       0.00791380 Eh      4.97 kcal/mol|
|  sn= 8 | S(rot)=       0.00778773 Eh      4.89 kcal/mol|
|  sn= 9 | S(rot)=       0.00767652 Eh      4.82 kcal/mol|
|  sn=10 | S(rot)=       0.00757704 Eh      4.75 kcal/mol|
|  sn=11 | S(rot)=       0.00748705 Eh      4.70 kcal/mol|
|  sn=12 | S(rot)=       0.00740489 Eh      4.65 kcal/mol|
 linear molecules ---------------------------------------
|  Dinfh | S(rot)=       0.00617154 Eh      3.87 kcal/mol|
|  Cinfv | S(rot)=       0.00682600 Eh      4.28 kcal/mol|
 --------------------------------------------------------

-------------------
GIBBS FREE ENERGY
-------------------

The Gibbs free energy is G = H - T*S

Total enthalpy                    ...   -418.89846219 Eh
Total entropy correction          ...     -0.02980759 Eh    -18.70 kcal/mol
-----------------------------------------------------------------------
Final Gibbs free energy         ...   -418.92826978 Eh

For completeness - the Gibbs free energy minus the electronic energy
G-E(el)                           ...      0.01472445 Eh      9.24 kcal/mol

                             ****ORCA TERMINATED NORMALLY****
TOTAL RUN TIME: 0 days 0 hours 12 minutes 54 seconds 932 msec
