                         Program Version 6.0.1  -  RELEASE   -
|  1> ! wB97X-D3 aug-cc-pVTZ EnGrad Freq
|  2>
|  3> %pal nprocs=32 end
|  4> %maxcore 2000
|  5>
|  6> %basis
|  7>   NewGTO 15
|  8> S   15
|  9> 1         3.124000E+05           5.769600E-05
| 10> 2         4.680000E+04           4.482960E-04
| 11> 3         1.065000E+04           2.349390E-03
| 12> 4         3.018000E+03           9.782650E-03
| 13> 5         9.868000E+02           3.414670E-02
| 14> 6         3.574000E+02           1.002040E-01
| 15> 7         1.396000E+02           2.343720E-01
| 16> 8         5.763000E+01           3.824340E-01
| 17> 9         2.460000E+01           3.180880E-01
| 18> 10        1.012000E+01           7.077880E-02
| 19> 11        4.283000E+00          -1.817990E-03
| 20> 12        1.805000E+00           2.161800E-03
| 21> 13        6.158000E-01          -8.347420E-04
| 22> 14        2.782000E-01           4.322970E-04
| 23> 15        1.055000E-01          -1.142510E-04
| 24> S   15
| 25> 1         3.124000E+05          -1.567090E-05
| 26> 2         4.680000E+04          -1.217240E-04
| 27> 3         1.065000E+04          -6.396720E-04
| 28> 4         3.018000E+03          -2.674260E-03
| 29> 5         9.868000E+02          -9.498310E-03
| 30> 6         3.574000E+02          -2.893490E-02
| 31> 7         1.396000E+02          -7.451210E-02
| 32> 8         5.763000E+01          -1.499380E-01
| 33> 9         2.460000E+01          -1.894670E-01
| 34> 10        1.012000E+01           3.632700E-02
| 35> 11        4.283000E+00           5.288160E-01
| 36> 12        1.805000E+00           5.191150E-01
| 37> 13        6.158000E-01           6.055470E-02
| 38> 14        2.782000E-01          -9.256950E-03
| 39> 15        1.055000E-01           2.103720E-03
| 40> S   1
| 41> 1         6.158000E-01           1.000000E+00
| 42> S   15
| 43> 1         3.124000E+05           4.306310E-06
| 44> 2         4.680000E+04           3.341940E-05
| 45> 3         1.065000E+04           1.758850E-04
| 46> 4         3.018000E+03           7.343400E-04
| 47> 5         9.868000E+02           2.617750E-03
| 48> 6         3.574000E+02           7.978520E-03
| 49> 7         1.396000E+02           2.079400E-02
| 50> 8         5.763000E+01           4.244460E-02
| 51> 9         2.460000E+01           5.634360E-02
| 52> 10        1.012000E+01          -1.273580E-02
| 53> 11        4.283000E+00          -1.964950E-01
| 54> 12        1.805000E+00          -3.535550E-01
| 55> 13        6.158000E-01           7.414070E-02
| 56> 14        2.782000E-01           7.009120E-01
| 57> 15        1.055000E-01           4.047390E-01
| 58> S   1
| 59> 1         1.055000E-01           1.000000E+00
| 60> S   1
| 61> 1         0.0409000              1.0000000
| 62> P   9
| 63> 1         5.049000E+02           2.337280E-03
| 64> 2         1.194000E+02           1.854100E-02
| 65> 3         3.796000E+01           8.496930E-02
| 66> 4         1.395000E+01           2.446150E-01
| 67> 5         5.457000E+00           4.227660E-01
| 68> 6         2.177000E+00           3.684390E-01
| 69> 7         8.010000E-01           7.727340E-02
| 70> 8         2.877000E-01          -3.790050E-03
| 71> 9         9.714000E-02           1.599390E-03
| 72> P   1
| 73> 1         8.010000E-01           1.000000E+00
| 74> P   9
| 75> 1         5.049000E+02          -5.552360E-04
| 76> 2         1.194000E+02          -4.459130E-03
| 77> 3         3.796000E+01          -2.063500E-02
| 78> 4         1.395000E+01          -6.176940E-02
| 79> 5         5.457000E+00          -1.089240E-01
| 80> 6         2.177000E+00          -1.055990E-01
| 81> 7         8.010000E-01           1.534830E-01
| 82> 8         2.877000E-01           5.769810E-01
| 83> 9         9.714000E-02           4.224390E-01
| 84> P   1
| 85> 1         9.714000E-02           1.000000E+00
| 86> P   1
| 87> 1         0.0307000              1.0000000
| 88> D   1
| 89> 1         3.120000E+00           1.000000E+00
| 90> D   1
| 91> 1         6.480000E-01           1.000000E+00
| 92> D   1
| 93> 1         2.180000E-01           1.000000E+00
| 94> D   1
| 95> 1         0.0775000              1.0000000
| 96> F   1
| 97> 1         4.520000E-01           1.0000000
| 98> F   1
| 99> 1         0.1650000              1.0000000
|100>   end
|101> end
|102>
|103> *xyz 0 2
|104> P     1.221977000000     -0.707832000000      1.970483000000
|105> H     1.337829000000      0.661798000000      2.407387000000
|106> H    -0.119738000000     -0.631392000000      1.579668000000
|107> H     1.885287000000     -0.540955000000      0.752842000000
|108> O     1.403650000000     -2.678708000000      1.813496000000
|109> H     1.285828000000     -3.019018000000      2.705699000000
|110> *
|111>
|112>                          ****END OF INPUT****

CARTESIAN COORDINATES (ANGSTROEM)
---------------------------------
  P      1.221977   -0.707832    1.970483
  H      1.337829    0.661798    2.407387
  H     -0.119738   -0.631392    1.579668
  H      1.885287   -0.540955    0.752842
  O      1.403650   -2.678708    1.813496
  H      1.285828   -3.019018    2.705699

 Total Charge           Charge          ....    0
 Multiplicity           Mult            ....    2
 Number of Electrons    NEL             ....   27
 Basis Dimension        Dim             ....  193

ORBITAL ENERGIES
----------------
                 SPIN UP ORBITALS
  NO   OCC          E(Eh)            E(eV)
   0   1.0000     -77.231268     -2101.5696
   1   1.0000     -19.228884      -523.2445
   2   1.0000      -6.711853      -182.6388
   3   1.0000      -4.864736      -132.3762
   4   1.0000      -4.863215      -132.3348
   5   1.0000      -4.863132      -132.3326
   6   1.0000      -1.083109       -29.4729
   7   1.0000      -0.787544       -21.4302
   8   1.0000      -0.570542       -15.5252
   9   1.0000      -0.521749       -14.1975
  10   1.0000      -0.489827       -13.3289
  11   1.0000      -0.478929       -13.0323
  12   1.0000      -0.394399       -10.7321
  13   1.0000      -0.307339        -8.3631
  14   0.0000       0.025834         0.7030
  15   0.0000       0.047141         1.2828
  16   0.0000       0.054246         1.4761
  17   0.0000       0.055029         1.4974
  18   0.0000       0.074114         2.0167

                 SPIN DOWN ORBITALS
  NO   OCC          E(Eh)            E(eV)
   0   1.0000     -77.228808     -2101.5027
   1   1.0000     -19.219373      -522.9857
   2   1.0000      -6.709309      -182.5696
   3   1.0000      -4.861810      -132.2966
   4   1.0000      -4.861321      -132.2833
   5   1.0000      -4.859169      -132.2247
   6   1.0000      -1.053974       -28.6801
   7   1.0000      -0.770238       -20.9592
   8   1.0000      -0.554128       -15.0786
   9   1.0000      -0.514949       -14.0125
  10   1.0000      -0.468350       -12.7444
  11   1.0000      -0.429976       -11.7002
  12   1.0000      -0.381555       -10.3826
  13   0.0000      -0.030549        -0.8313
  14   0.0000       0.032743         0.8910
  15   0.0000       0.054590         1.4855
  16   0.0000       0.058965         1.6045
  17   0.0000       0.061092         1.6624

MULLIKEN ATOMIC CHARGES AND SPIN POPULATIONS
--------------------------------------------
   0 P :    0.061096    0.547392
   1 H :    0.042929    0.151819
   2 H :    0.115365   -0.018899
   3 H :    0.130326   -0.017880
   4 O :   -0.551300    0.372094
   5 H :    0.201584   -0.034526
Sum of atomic charges         :    0.0000000

LOEWDIN ATOMIC CHARGES AND SPIN POPULATIONS
-------------------------------------------
   0 P :    1.145319    0.391910
   1 H :   -0.338615    0.163466
   2 H :   -0.300516    0.029774
   3 H :   -0.300212    0.020025
   4 O :    0.508446    0.359411
   5 H :   -0.714423    0.035415

  Mayer bond orders larger than 0.100000
B(  0-P ,  1-H ) :   0.9354 B(  0-P ,  2-H ) :   0.9666 B(  0-P ,  3-H ) :   0.9629
B(  0-P ,  4-O ) :   0.6579 B(  4-O ,  5-H ) :   1.0062

Dispersion correction           -0.000508857
FINAL SINGLE POINT ENERGY      -418.932158558188
Dispersion correction             ... done (  0.0 sec)

DIPOLE MOMENT
-------------

Method             : SCF
Type of density    : Electron Density
Multiplicity       :   2
Irrep              :   0
Energy             :  -418.9316497009390332 Eh
Relativity type    :
Basis              : AO
                                X                 Y                 Z
Electronic contribution:      0.391526861      -0.477651874       0.606172917
Nuclear contribution   :     -0.600636949       1.132189473      -0.245374565
                        -----------------------------------------
Total Dipole Moment    :     -0.209110088       0.654537599       0.360798351
                        -----------------------------------------
Magnitude (a.u.)       :      0.776094033
Magnitude (Debye)      :      1.972674260

VIBRATIONAL FREQUENCIES
-----------------------

Scaling factor for frequencies =  1.000000000  (already applied!)

     0:       0.00 cm**-1
     1:       0.00 cm**-1
     2:       0.00 cm**-1
     3:       0.00 cm**-1
     4:       0.00 cm**-1
     5:       0.00 cm**-1
     6:      90.96 cm**-1
     7:     198.79 cm**-1
     8:     489.46 cm**-1
     9:     582.69 cm**-1
    10:     922.10 cm**-1
    11:     984.34 cm**-1
    12:    1138.51 cm**-1
    13:    1166.39 cm**-1
    14:    2205.47 cm**-1
    15:    2519.99 cm**-1
    16:    2546.93 cm**-1
    17:    3860.49 cm**-1

IR SPECTRUM
-----------

 Mode   freq       eps      Int      T**2         TX        TY        TZ
       cm**-1   L/(mol*cm) km/mol    a.u.
----------------------------------------------------------------------------
  6:     90.96   0.010517   53.15  0.036082  ( 0.033824  0.185888  0.019583)
  7:    198.79   0.015935   80.53  0.025016  (-0.156350  0.011312 -0.021032)
  8:    489.46   0.000085    0.43  0.000054  ( 0.007011 -0.000449  0.002255)
  9:    582.69   0.003191   16.12  0.001709  (-0.008784  0.037625 -0.014695)
 10:    922.10   0.008398   42.44  0.002842  ( 0.005337 -0.048516 -0.021443)
 11:    984.34   0.011588   58.56  0.003674  (-0.013713  0.057479 -0.013489)
 12:   1138.51   0.009928   50.17  0.002721  ( 0.005840 -0.051277 -0.007598)
 13:   1166.39   0.002897   14.64  0.000775  (-0.019045 -0.020226  0.001840)
 14:   2205.47   0.021997  111.16  0.003112  (-0.004774 -0.053207 -0.016082)
 15:   2519.99   0.003342   16.89  0.000414  (-0.017014  0.007868 -0.007906)
 16:   2546.93   0.003024   15.28  0.000370  ( 0.014431  0.004648 -0.011857)
 17:   3860.49   0.009404   47.52  0.000760  (-0.000306 -0.023702  0.014081)

--------------------------
THERMOCHEMISTRY AT 298.15K
--------------------------

Temperature         ...   298.15 K
Pressure            ...     1.00 atm
Total Mass          ...    51.01 AMU
Quasi RRHO          ...     True
Cut-Off Frequency   ...     1.00 cm^-1

Throughout the following assumptions are being made:
  (1) The electronic state is orbitally nondegenerate
      but the spin degeneracy is treated
  (2) There are no thermally accessible electronically excited states
  (3) Hindered rotations indicated by low frequency modes are not
      treated as such but are treated as vibrations and this may
      cause some error
  (4) All equations used are the standard statistical mechanics
      equations for an ideal gas
  (5) All vibrations are strictly harmonic

freq.      90.96  E(vib)   ...       0.47
freq.     198.79  E(vib)   ...       0.35
freq.     489.46  E(vib)   ...       0.15
freq.     582.69  E(vib)   ...       0.11
freq.     922.10  E(vib)   ...       0.03
freq.     984.34  E(vib)   ...       0.02
freq.    1138.51  E(vib)   ...       0.01
freq.    1166.39  E(vib)   ...       0.01
freq.    2205.47  E(vib)   ...       0.00
freq.    2519.99  E(vib)   ...       0.00
freq.    2546.93  E(vib)   ...       0.00
freq.    3860.49  E(vib)   ...       0.00

------------
INNER ENERGY
------------

The inner energy is: U= E(el) + E(ZPE) + E(vib) + E(rot) + E(trans)
    E(el)   - is the total energy from the electronic structure calculation
              = E(kin-el) + E(nuc-el) + E(el-el) + E(nuc-nuc)
    E(ZPE)  - the the zero temperature vibrational energy from the frequency calculation
    E(vib)  - the the finite temperature correction to E(ZPE) due to population
              of excited vibrational states
    E(rot)  - is the rotational thermal energy
    E(trans)- is the translational thermal energy

Summary of contributions to the inner energy U:
Electronic energy                ...   -418.93215856 Eh
Zero point energy                ...      0.03805937 Eh      23.88 kcal/mol
Thermal vibrational correction   ...      0.00184629 Eh       1.16 kcal/mol
Thermal rotational correction    ...      0.00141627 Eh       0.89 kcal/mol
Thermal translational correction ...      0.00141627 Eh       0.89 kcal/mol
-----------------------------------------------------------------------
Total thermal energy                   -418.88942036 Eh

Summary of corrections to the electronic energy:
(perhaps to be used in another calculation)
Total thermal correction                  0.00467883 Eh       2.94 kcal/mol
Non-thermal (ZPE) correction              0.03805937 Eh      23.88 kcal/mol
-----------------------------------------------------------------------
Total correction                          0.04273820 Eh      26.82 kcal/mol

--------
ENTHALPY
--------

The enthalpy is H = U + kB*T
                kB is Boltzmann's constant
Total thermal energy              ...   -418.88942036 Eh
Thermal Enthalpy correction       ...      0.00094421 Eh       0.59 kcal/mol
-----------------------------------------------------------------------
Total Enthalpy                    ...   -418.88847615 Eh

Note: Only C1 symmetry has been detected, increase convergence thresholds
      if your molecule has a higher symmetry. Symmetry factor of 1.0 is
      used for the rotational entropy correction.

Note: Rotational entropy computed according to Herzberg
Infrared and Raman Spectra, Chapter V,1, Van Nostrand Reinhold, 1945
Point Group:  C1, Symmetry Number:   1
Rotational constants in cm-1:     3.470819     0.326776     0.322217

Vibrational entropy computed according to the QRRHO of S. Grimme
Chem.Eur.J. 2012 18 9955 using a reference frequency of 100.0 cm-1

-------
ENTROPY
-------

The entropy contributions are T*S = T*(S(el)+S(vib)+S(rot)+S(trans))
     S(el)   - electronic entropy
     S(vib)  - vibrational entropy
     S(rot)  - rotational entropy
     S(trans)- translational entropy
The entropies will be listed as multiplied by the temperature to get
units of energy

Electronic entropy                ...      0.00065446 Eh      0.41 kcal/mol
Vibrational entropy               ...      0.00326364 Eh      2.05 kcal/mol
Rotational entropy                ...      0.00998602 Eh      6.27 kcal/mol
Translational entropy             ...      0.01791774 Eh     11.24 kcal/mol
-----------------------------------------------------------------------
Final entropy term                ...      0.03182187 Eh     19.97 kcal/mol

In case the symmetry of your molecule has not been determined correctly
or in case you have a reason to use a different symmetry number we print
out the resulting rotational entropy values for sn=1,12:

 non-linear molecules -----------------------------------
|  sn= 1 | S(rot)=       0.00998602 Eh      6.27 kcal/mol|
|  sn= 2 | S(rot)=       0.00933157 Eh      5.86 kcal/mol|
|  sn= 3 | S(rot)=       0.00894874 Eh      5.62 kcal/mol|
|  sn= 4 | S(rot)=       0.00867711 Eh      5.44 kcal/mol|
|  sn= 5 | S(rot)=       0.00846642 Eh      5.31 kcal/mol|
|  sn= 6 | S(rot)=       0.00829428 Eh      5.20 kcal/mol|
|  sn= 7 | S(rot)=       0.00814873 Eh      5.11 kcal/mol|
|  sn= 8 | S(rot)=       0.00802266 Eh      5.03 kcal/mol|
|  sn= 9 | S(rot)=       0.00791145 Eh      4.96 kcal/mol|
|  sn=10 | S(rot)=       0.00781197 Eh      4.90 kcal/mol|
|  sn=11 | S(rot)=       0.00772198 Eh      4.85 kcal/mol|
|  sn=12 | S(rot)=       0.00763982 Eh      4.79 kcal/mol|
 linear molecules ---------------------------------------
|  Dinfh | S(rot)=       0.00639512 Eh      4.01 kcal/mol|
|  Cinfv | S(rot)=       0.00704957 Eh      4.42 kcal/mol|
 --------------------------------------------------------

-------------------
GIBBS FREE ENERGY
-------------------

The Gibbs free energy is G = H - T*S

Total enthalpy                    ...   -418.88847615 Eh
Total entropy correction          ...     -0.03182187 Eh    -19.97 kcal/mol
-----------------------------------------------------------------------
Final Gibbs free energy         ...   -418.92029802 Eh

For completeness - the Gibbs free energy minus the electronic energy
G-E(el)                           ...      0.01186054 Eh      7.44 kcal/mol

                             ****ORCA TERMINATED NORMALLY****
TOTAL RUN TIME: 0 days 0 hours 0 minutes 44 seconds 341 msec
